ITEM: TIMESTEP
50000
ITEM: NUMBER OF ATOMS
3000
ITEM: BOX BOUNDS pp pp pp
0 11.33
0 11.33
0 11.33
ITEM: ATOMS id type x y z vx vy vz fx fy fz 
335 3 1.07994 0.360856 0.73993 -0.625956 -1.26469 3.15961 -0.592149 0.437633 -0.810504 
6 3 1.93707 0.335879 0.131195 -0.553061 0.380328 -2.43492 -1.57222 -0.269914 -3.52912 
312 3 3.75009 0.199225 0.739657 0.677412 -0.580238 1.33608 15.1869 25.1457 22.9269 
44 3 4.43296 0.724989 0.224061 -0.884291 1.09287 2.0459 -15.2918 25.6563 22.1233 
43 2 4.46025 0.416159 0.104483 0.101894 -0.0112301 -0.124871 -10.3818 -30.8853 -27.7539 
36 3 1.11927 1.17546 0.130107 0.833519 -1.49648 0.232442 8.40236 -8.24515 -9.77746 
2737 2 2.39066 1.23032 0.151962 0.330933 0.282501 0.317007 18.3743 1.50144 30.9248 
2738 3 2.68987 1.39132 0.173618 -0.415422 -0.749403 -0.934327 -20.9179 -2.41234 -9.06367 
20 3 5.37425 0.814604 0.609956 0.333923 -1.19987 1.91427 -2.77133 1.92057 -4.01869 
63 3 0.258715 2.17388 0.303194 -1.9329 2.57052 -0.574721 -0.128708 -0.038787 0.00200598 
61 2 0.461791 2.39435 0.146645 0.238495 0.313945 0.254164 -1.27284 1.27503 -1.5775 
66 3 1.29782 2.12943 0.463617 0.299145 -0.642028 0.343132 8.54672 5.67501 -3.74548 
64 2 1.57672 2.32394 0.451073 0.409599 -0.0254018 -0.0114465 -12.3696 -0.487262 2.84825 
65 3 1.8119 2.11287 0.334879 -0.801123 0.529118 0.422838 6.51071 -4.6257 -2.87389 
2772 3 4.03653 1.70969 0.0152752 -0.0471577 -0.522634 0.415625 10.1046 -10.4224 10.3516 
348 3 5.01137 1.8628 0.419791 -1.39738 -1.32692 -0.091012 -0.686709 -3.36218 17.9853 
346 2 4.90725 1.86355 0.0998171 0.372638 -0.180277 0.200096 -38.8564 -21.833 12.5784 
391 2 0.871643 2.92285 0.732609 0.0430485 0.285958 -0.240454 3.93863 7.46237 8.5388 
395 3 2.21112 3.04988 0.502541 0.357989 -0.653545 0.0943063 -4.15482 -3.48135 4.12011 
396 3 2.52553 3.18359 0.105492 -1.8816 0.849554 -0.208385 10.1498 -0.420388 -5.60189 
98 3 3.40596 2.78575 0.525824 0.398968 1.7279 1.58632 -0.90133 5.4225 0.752672 
97 2 3.46733 3.09835 0.6445 -0.343406 -0.157498 -0.332796 14.1144 -10.266 7.72152 
75 3 4.83193 2.92855 0.270253 0.173982 -2.21676 -0.171891 -4.68224 -3.57573 1.05319 
73 2 4.58592 2.72364 0.382342 0.0374774 0.155996 -0.256974 27.6661 10.4383 29.3911 
74 3 4.38455 2.66004 0.127177 0.791217 0.230235 1.54298 -22.9839 -6.8626 -30.4443 
93 3 0.0316974 3.53364 0.198286 -1.01977 2.93624 0.534297 11.0687 -2.60629 -2.49564 
123 3 0.953015 3.9105 0.318584 0.107728 0.738594 0.760708 -0.774473 -5.64106 1.81664 
394 2 2.39502 3.30933 0.389427 0.118693 -0.0546843 -0.0210026 -0.79916 4.89993 4.45304 
732 3 2.96909 4.01224 0.545852 -1.47089 -1.18932 -2.46281 7.89226 1.1356 1.40936 
402 3 4.1163 3.66153 0.146183 -0.540541 -0.0995235 2.23834 -9.2083 6.45218 7.47727 
405 3 5.36279 3.78705 0.140041 -1.66805 0.288582 1.51219 -11.8169 24.8481 -7.44309 
122 3 0.665066 4.28627 0.0580189 -2.14524 1.519 0.996597 19.4181 2.52876 4.17717 
121 2 0.978775 4.21202 0.171072 -0.467301 0.253725 0.130699 -12.4161 9.78653 -7.96493 
731 3 3.22959 4.21051 0.141122 1.93233 -1.98655 -0.898056 3.94327 2.00536 21.8612 
730 2 3.24641 4.19887 0.485525 0.0109294 0.446956 0.41284 -6.49625 -2.68064 -24.2137 
464 3 3.98357 4.75412 0.511718 0.945847 -2.45483 -1.85263 -2.49394 -1.43514 -0.685009 
465 3 4.42358 4.71739 0.188118 0.0721862 -0.81523 1.20353 -11.4809 -7.03855 6.64932 
463 2 4.11366 4.59032 0.250474 0.182969 0.0414838 0.134556 16.766 -4.9192 -16.1408 
403 2 5.24536 4.10131 0.06392 -0.708581 0.0647213 0.36058 0.50703 -26.0795 6.09096 
404 3 5.50633 4.30924 0.0218401 0.444259 1.98886 -1.11622 6.07385 1.87118 -0.287504 
152 3 0.479958 5.2064 0.522962 0.600546 -2.2324 1.61704 -16.9294 -11.2388 -28.663 
151 2 0.502314 5.19777 0.17891 0.188223 -0.0817004 0.315149 5.31889 -3.09208 27.3936 
153 3 0.218797 5.34964 0.0799591 0.511661 1.14834 -1.24718 -7.0639 3.78544 -2.63026 
425 3 2.19001 5.00087 0.56987 1.00451 0.111123 -1.55911 29.92 -4.26325 -14.9675 
426 3 2.47686 4.91397 0.109298 0.230067 -2.05808 -0.414642 -3.9325 -0.688251 -23.9993 
424 2 2.50398 4.92902 0.441056 0.0205308 -0.598007 -0.0359585 -25.529 7.5591 38.1696 
459 3 3.15989 5.53872 0.557942 0.5176 2.76407 -0.0621648 4.82409 -2.98966 7.46408 
457 2 3.46587 5.4673 0.435321 0.251224 0.401751 0.30884 3.97537 -0.495949 -3.61861 
458 3 3.46626 5.53781 0.104081 0.262249 0.295411 -2.12748 -1.87676 -0.901354 4.69114 
137 3 5.31934 5.20128 0.53272 1.81252 -0.44959 -0.011058 0.407142 8.4454 4.01975 
136 2 5.20412 5.46033 0.722882 -0.0412048 0.365211 -0.106862 18.3761 -4.34348 -11.7977 
336 3 0.662557 0.0642737 0.910769 -0.820798 2.78787 0.956536 18.8566 2.01648 4.85567 
334 2 0.989761 0.135394 0.974787 0.33142 0.475602 0.0179518 -11.4537 -3.58452 -0.897892 
309 3 2.69047 0.497786 0.81097 -1.60229 0.0330899 0.263647 0.843003 13.5553 -2.93604 
308 3 2.69808 0.751233 1.25507 1.10807 -2.39072 1.93253 5.5858 12.1383 4.05864 
310 2 3.86878 0.449978 0.943628 0.847234 -0.0356274 -0.204027 -7.77288 -17.0144 -14.1929 
311 3 3.66235 0.455391 1.21135 0.0713728 2.27209 0.868439 0.0960033 -1.0806 -1.64435 
315 3 4.74089 0.116491 0.972029 1.21174 -0.247796 0.921532 -1.60907 1.08859 -0.949945 
19 2 5.46413 0.68664 0.90908 -0.0470025 0.208465 -0.511764 5.05898 -1.59039 2.41294 
314 3 4.88536 0.206458 1.48412 -0.933829 -0.508969 -0.261495 -5.81 14.0728 19.6306 
313 2 4.95545 0.0225155 1.21507 0.20826 0.735055 0.434663 7.41907 -15.1614 -18.6807 
362 3 0.3338 1.15959 0.841419 -0.496823 2.90533 -0.423574 0.631749 8.30611 -5.73038 
361 2 0.341595 0.923585 1.07993 0.0277854 0.233399 0.367044 -5.3896 -14.2496 -2.82809 
363 3 0.475561 1.04599 1.36196 -1.52655 1.39231 0.155674 -7.55797 1.8532 11.4471 
39 3 1.41038 1.29259 1.14521 -0.603426 1.52006 0.0275309 21.9363 8.1221 -9.20113 
38 3 1.794 1.05945 0.872906 -1.26454 -2.33785 2.17879 2.17921 -0.485452 -1.50121 
37 2 1.68836 1.36863 0.961224 0.585848 -0.329597 -0.566238 -12.0322 -4.44919 7.90068 
307 2 2.70757 0.821155 0.925168 0.483389 -0.141664 0.11734 -0.896623 -18.2509 -10.6265 
41 3 3.43172 1.38998 0.830322 0.63952 0.13712 2.22065 14.1703 11.1578 20.4459 
40 2 3.50156 1.6014 1.08964 0.243217 -0.35798 0.138133 1.56464 -5.19723 -13.2604 
343 2 4.36193 1.18755 1.48158 -0.485721 -0.397093 0.0448093 25.502 -36.529 -9.08841 
345 3 4.55096 1.16326 1.19475 0.441934 -0.22528 0.157175 -14.1234 1.75231 10.64 
378 3 5.53623 1.60334 1.24106 -1.32166 -1.04822 -1.10102 1.79312 0.149299 7.18052 
666 3 0.723646 2.00937 1.2692 1.1504 -0.865149 0.257776 -2.02149 -0.679972 4.27929 
664 2 0.678158 2.15865 1.56884 -0.360517 0.0436629 0.534551 -1.39996 3.36432 -1.31639 
365 3 1.70182 2.30936 1.44743 0.735041 0.977672 -2.20335 -13.3161 2.29515 7.74547 
337 2 2.58503 2.10008 1.22934 0.500873 -0.131198 0.0752873 -4.62358 3.92532 48.6599 
339 3 2.49381 1.78669 1.16485 1.01982 0.839938 1.95812 3.63541 -33.2925 -10.8093 
338 3 2.66832 2.25804 0.952153 0.676252 -0.79338 1.97686 12.0129 22.0916 -41.7842 
42 3 3.74544 1.81068 0.979692 1.74853 -1.22093 -2.10427 -6.10679 -5.97784 1.33767 
373 2 4.62979 2.02118 1.46836 -0.492889 0.736405 0.271186 20.927 36.0534 -20.9653 
375 3 4.67269 2.29304 1.26517 -0.665825 0.90364 0.308019 -1.28272 -12.6293 -1.2343 
392 3 0.566568 2.96701 0.873211 -0.138233 -1.66567 -1.03135 -4.33508 -10.6347 -6.01369 
393 3 1.05151 3.12341 0.941799 -1.29245 2.07741 -2.87631 2.37993 -4.28568 -6.17713 
366 3 1.8912 2.78575 1.41941 0.942487 0.493083 0.0885976 2.28465 6.35168 2.34294 
99 3 3.74798 3.03946 0.832636 1.12056 1.75289 1.09797 -14.685 2.41679 -5.48634 
705 3 4.35044 3.20194 1.61553 -0.890507 1.5986 0.0707102 -1.64655 -6.02571 5.29121 
76 2 5.49863 2.79341 0.961065 0.519111 -0.335996 0.327783 -2.94467 -10.7338 0.134647 
78 3 5.63582 3.09534 0.906421 0.25001 -0.315492 -1.25251 1.12262 8.10233 -3.91035 
422 3 0.308114 3.90469 1.08166 -2.11051 -0.728051 -0.136391 -1.71387 -4.45466 -7.88275 
727 2 1.88507 3.77341 0.988193 -0.150593 0.422847 0.754323 14.3636 17.9044 -15.2843 
728 3 1.68415 3.83408 1.25123 1.4893 1.52822 -0.866019 -1.71946 3.48796 2.80849 
399 3 2.65853 3.42753 1.37216 1.86454 1.71378 1.08559 -13.813 -2.15371 13.8869 
432 3 3.54592 3.80733 1.60893 0.634905 0.364799 -1.90287 5.40044 9.05519 -27.0092 
430 2 3.50413 3.86739 1.27101 -0.40444 -0.198713 -0.0904199 12.3831 0.139472 23.7806 
431 3 3.79048 4.02311 1.1717 0.0324546 1.31516 -1.10758 -10.231 -5.96223 5.24376 
703 2 4.42675 3.44367 1.39429 0.370697 -0.126855 -0.452792 23.2817 -3.41054 -18.1995 
704 3 4.70441 3.31971 1.23045 -0.649896 0.630423 -0.451332 -21.6352 9.43625 12.9083 
421 2 0.312834 4.12978 1.32934 -0.429683 0.330058 -0.160426 0.757145 2.84787 17.9686 
423 3 0.296463 4.42884 1.17683 0.0714244 -1.12239 -2.58064 -0.516579 9.76542 -4.59767 
722 3 1.30665 4.73427 1.03549 0.78926 -0.0658447 1.24273 -6.0745 -9.70799 -5.43141 
723 3 1.58065 4.82233 1.49561 -2.51626 0.869159 -0.705234 -4.83409 16.4053 -28.7965 
729 3 2.02455 4.05983 0.857575 -0.163479 0.40624 1.18787 -24.381 -27.1441 10.1244 
460 2 3.02109 4.59968 1.50206 -0.29459 0.25037 0.0553169 5.48212 14.4556 -21.0373 
462 3 2.72216 4.45369 1.44586 0.218035 -2.47677 0.630948 -2.27964 -2.99791 7.80004 
461 3 3.04922 4.77431 1.2059 1.05823 1.55498 -4.05923 -2.2234 -11.6589 17.7083 
434 3 4.81919 4.29661 1.00855 0.403174 2.33836 -1.05151 17.8199 11.3414 2.68753 
435 3 5.33082 4.19387 1.07467 -0.0496837 -0.499378 -0.175516 19.3089 -20.9412 2.055 
433 2 5.12261 4.4533 1.05337 0.371816 0.287604 0.114574 -37.1288 9.59981 -4.74253 
753 3 0.158669 5.51894 1.58698 -1.65915 -0.821582 1.29137 -31.9595 3.1215 -28.52 
752 3 0.680789 5.39259 1.54266 -2.0015 -1.34049 -0.213974 -15.6095 -0.0347914 11.5204 
721 2 1.47277 4.97226 1.20353 -0.216128 0.222537 -0.613347 15.5257 -1.60494 30.0336 
428 3 2.40314 5.46708 1.52848 2.45984 1.91903 1.85595 -0.254875 -4.07504 15.4907 
427 2 2.38417 5.60432 1.22427 -0.0923919 -0.177254 0.512047 1.47091 1.99895 -18.2224 
765 3 3.85514 5.35316 1.28683 -2.25965 -1.07441 0.139808 0.0165938 13.2912 14.5126 
763 2 4.16871 5.46164 1.34732 -0.656135 0.122382 -0.273569 3.55436 12.1557 27.9174 
138 3 4.90675 5.33797 0.817238 -0.161917 1.47131 -1.71215 -18.7833 -4.10192 7.77793 
635 3 0.781339 0.554229 2.27846 0.586505 0.524902 -1.16692 14.1915 16.5307 -1.08962 
301 2 0.0302364 0.122048 2.01048 0.469894 0.52445 0.0906696 -0.866402 0.724446 -3.14829 
634 2 1.01187 0.808309 2.25079 0.149856 0.254597 0.508582 -11.7209 -18.9879 -2.78264 
636 3 1.20926 0.695007 1.99871 1.5725 0.974399 0.329789 -2.47056 2.45713 3.87226 
306 3 2.05313 0.12254 1.66697 0.782066 0.0761526 0.232914 -9.75968 -3.2279 7.69091 
881 3 3.02855 0.205634 2.02355 1.05514 -0.458924 -1.21164 -2.86326 0.121246 -4.15749 
880 2 3.16965 0.127795 2.31913 -0.385801 -0.114956 -0.00180527 1.133 -3.61955 8.03701 
614 3 4.05451 0.614573 2.32169 1.38167 -1.29456 0.988054 14.6396 23.2277 14.8937 
617 3 5.38201 0.750323 2.20723 -1.00149 -0.528795 1.00003 3.82757 -0.582858 -2.13686 
962 3 0.210238 1.39877 2.42725 0.931566 1.3303 -0.677967 -6.86623 1.81364 -2.41046 
607 2 2.14082 1.19154 2.22893 -0.182566 -0.0100889 0.0924206 8.31872 -6.94733 23.1567 
608 3 2.06825 1.2236 1.90471 0.303326 0.635004 -0.244531 -4.37299 1.42116 -21.7247 
609 3 2.33289 0.913147 2.25842 2.43529 -2.07384 1.28013 -4.43623 4.44326 -1.67839 
642 3 3.73773 1.51787 2.00371 1.08538 -0.897962 1.83187 -8.66305 -0.579891 4.3246 
640 2 3.48916 1.33669 2.14213 -0.333551 0.0651712 -0.423949 19.8523 18.445 34.3624 
641 3 3.32014 1.18427 1.90244 -0.423244 -0.349233 -0.646628 -18.5277 -17.4421 -29.3893 
344 3 4.62238 1.15765 1.70434 1.20286 -0.0731532 0.21167 -17.2714 3.32573 -7.36127 
665 3 0.776639 1.93874 1.80495 -1.4655 0.14589 -1.00366 0.926421 -2.38134 0.764863 
669 3 2.57292 2.18202 2.13086 -1.24395 1.25828 -2.93409 0.114369 0.554851 4.36905 
374 3 4.43431 2.16121 1.70171 0.74599 -1.77206 0.0161694 -8.80318 8.61909 16.6988 
377 3 5.50252 1.67537 1.78699 0.382597 0.515506 -0.909709 -3.03304 1.11944 -2.08668 
726 3 1.43255 3.08377 2.2788 -0.18696 1.80667 -0.904848 -2.6083 0.428622 -1.73517 
364 2 1.78408 2.56568 1.65417 -0.0837363 -0.187829 0.173221 0.00665512 -1.37121 -6.15479 
398 3 2.7572 3.16969 1.81981 -0.0618395 -1.51255 -1.92003 -17.579 18.2106 -0.0384259 
371 3 3.61799 2.49272 2.2363 -1.17099 1.12788 2.21021 2.08432 -24.3909 17.5542 
370 2 3.60454 2.66559 1.95265 0.162458 0.254861 -0.511 -8.94408 6.84596 -40.9647 
372 3 3.46318 2.48778 1.69583 -0.233941 -1.31011 0.925266 19.6124 -0.563579 16.7522 
677 3 5.54372 2.5721 2.30984 -0.14818 0.479088 0.318127 19.2159 -9.54789 3.7092 
678 3 5.34346 2.74397 1.8475 -0.195748 -0.859241 -0.363659 5.62061 2.54203 3.95594 
676 2 5.62776 2.74132 2.03185 -0.270642 -0.209483 0.0760035 0.148149 5.20141 -10.0791 
418 2 0.254219 3.2939 2.04504 0.347295 -0.0646794 0.420536 32.2641 -4.80708 -7.99408 
419 3 0.517913 3.26008 1.82619 0.415023 0.949257 -1.01509 -23.5273 3.79774 17.7524 
756 3 1.95415 4.00692 2.23163 -2.54775 0.512973 -0.463628 5.13582 -3.98192 1.29293 
397 2 2.55808 3.41972 1.70014 0.104866 0.0858317 -0.310313 13.2339 -9.04537 -14.0012 
702 3 4.83723 3.87955 2.28516 -1.08834 -0.210905 -3.03514 6.92106 -8.76852 -2.64118 
701 3 5.27988 3.76441 2.00991 0.433703 1.6166 0.125508 7.04594 4.09993 -5.79692 
700 2 5.04543 3.62194 2.20424 0.551522 0.0359824 0.199613 -13.967 4.66859 8.43811 
1021 2 0.718715 4.29609 2.17315 -0.175824 0.102453 0.216324 1.48666 -10.8983 -3.16217 
1023 3 0.733394 4.6252 2.23959 1.16454 2.66524 3.10167 2.14436 7.59165 0.6523 
1022 3 1.00225 4.20155 2.01376 1.46964 -0.92377 -1.64692 -13.8371 -0.556604 5.41149 
755 3 2.0294 4.51899 2.33872 -0.485552 -1.2527 1.19337 -0.715975 -4.5128 -7.53775 
754 2 1.9961 4.30423 2.07643 0.194238 -0.0482413 0.0265343 1.12943 7.36005 7.51488 
997 2 3.21168 4.05843 2.4207 -0.00294814 0.130788 -0.328213 10.7013 3.72895 -10.4531 
999 3 3.11236 4.38075 2.40595 -0.472544 -0.856602 -1.71179 -6.74967 2.53126 1.5959 
735 3 3.99531 4.65393 2.038 -0.252894 -2.36266 -0.445399 7.33641 -1.58845 0.248361 
733 2 4.10319 4.46768 2.30066 -0.0685617 0.478555 0.037527 2.38997 11.2284 2.11185 
1065 3 5.14483 4.76931 1.90825 0.749174 -0.0862442 0.635492 0.613767 -16.7736 6.35453 
751 2 0.411891 5.38671 1.75523 -0.134569 -0.686469 0.014862 43.373 -14.7879 7.79697 
785 3 1.30006 5.48282 2.36695 -3.67058 -0.819363 -1.21031 18.8044 -13.0039 -4.5274 
784 2 1.60563 5.33151 2.31083 0.0929074 0.220342 -0.199604 -11.732 27.9884 8.60652 
786 3 1.80776 5.60022 2.381 1.46445 0.114669 1.07926 -7.07248 -14.9846 -4.07911 
1058 3 3.24158 5.36681 2.11633 0.675915 0.422513 -1.16376 -4.96232 -0.948578 12.7605 
764 3 4.16243 5.58914 1.66929 0.376791 2.31271 -1.61448 -1.71207 -11.4852 -29.1552 
1064 3 5.0521 5.27864 2.00136 0.210257 2.83076 0.0321949 -6.44432 18.2506 18.9382 
1063 2 5.14326 5.06909 1.75839 0.553925 -0.0632429 0.329027 6.70681 -1.78281 -24.9656 
909 3 1.542 0.434847 3.01082 0.352996 -0.365784 4.02109 -13.1666 10.9834 9.76521 
908 3 2.04722 0.276669 2.98682 -0.694321 -0.574136 -2.85162 32.869 3.00094 16.1443 
907 2 1.75374 0.244305 2.83525 0.320123 0.513345 -0.45078 -19.7025 -13.9843 -25.9095 
615 3 4.354 0.745477 2.75146 -0.157167 -1.33373 0.35267 0.121259 -1.24551 0.71996 
616 2 5.59748 0.624764 2.43667 0.118855 0.257794 -0.324327 -8.81967 0.425924 6.98939 
618 3 5.39023 0.604373 2.70656 1.04492 -1.5184 -1.14361 5.54302 -0.322937 -3.75926 
905 3 0.579368 0.832384 3.22823 -0.322504 -0.959586 0.240593 -3.17416 -0.704252 -0.942917 
936 3 1.38327 1.52981 2.60536 -0.207142 0.488533 -4.12083 4.76899 6.75381 1.09024 
638 3 2.21954 1.37834 3.21299 -0.349131 -0.874461 1.07944 5.04384 21.093 7.53165 
612 3 3.10875 0.878335 2.91245 -0.442573 -1.24047 -0.0631223 6.03885 -1.29052 -17.3345 
610 2 3.00577 0.863478 3.22996 -0.381569 -0.0514071 0.0250354 -6.66287 0.21263 19.8456 
613 2 4.2174 0.880381 2.47361 0.209868 0.655484 -0.498814 -15.1782 -22.3814 -15.1599 
662 3 0.498071 2.19245 3.0358 0.787383 -0.290119 -0.0541796 -2.77389 5.33179 0.609817 
661 2 0.692811 2.17739 2.76064 -0.296816 -0.4396 0.110824 2.11615 1.86547 -3.73282 
934 2 1.58437 1.78204 2.71139 0.160838 -0.144632 0.588299 -2.35958 1.40958 -9.30041 
935 3 1.62721 1.99163 2.44657 1.1415 -0.39602 -0.271124 -2.40941 -8.16339 8.21017 
667 2 2.62034 2.11886 2.46111 0.226347 0.124415 0.294362 -5.61361 14.06 -5.82934 
668 3 2.73647 1.80415 2.46114 -2.19034 -0.227382 0.399853 5.98974 -13.532 1.70668 
671 3 3.61006 1.8243 2.98999 -0.91751 -1.55745 -0.514599 -2.39269 2.0342 1.19291 
670 2 3.36697 2.05359 3.04548 0.336146 0.0418189 -0.313657 -2.35747 -3.5331 17.2598 
341 3 4.56226 1.73088 2.68502 2.03496 -0.485287 2.06861 -9.791 -13.2946 -5.77582 
342 3 5.05609 1.62846 2.80616 0.444513 1.444 1.29808 6.29297 -1.31008 1.5823 
340 2 4.86343 1.69631 2.53662 -0.1171 -0.568397 -0.381433 2.82986 -0.316948 -1.45761 
663 3 0.694645 2.49457 2.64189 -3.06762 2.43955 -1.56165 5.0128 -0.877936 3.9553 
724 2 1.56386 3.05646 2.58918 -0.0118347 0.0632044 0.0804472 -29.0154 4.13055 5.5131 
725 3 1.88836 3.01015 2.53202 1.03705 0.0493888 -1.1374 31.6237 -4.55917 -3.77793 
968 3 2.9367 2.89139 2.8437 0.759702 0.256156 1.20873 -6.51815 4.52403 7.56555 
967 2 2.76221 3.02257 3.10377 0.0800634 -0.205149 -0.117239 7.4022 5.00096 -8.24272 
1002 3 4.60601 2.75236 2.54626 -2.19513 0.0950067 0.585618 -13.4645 6.76002 -24.0311 
1000 2 4.38767 2.75809 2.80198 -0.406056 -0.0621455 0.28683 -20.2196 6.95577 -8.20255 
1001 3 4.60362 2.65453 3.03482 -0.990292 -3.05785 0.622632 16.0007 8.42575 38.8057 
692 3 0.00104291 3.82762 2.77617 0.455243 1.28941 -0.100071 6.9145 -5.02405 -6.04485 
992 3 0.909573 3.43554 3.06283 -0.478041 2.48404 -0.796729 -0.707633 -11.1423 14.4713 
998 3 3.00302 3.92187 2.64452 0.535793 0.1754 0.46173 -10.282 -8.21884 11.4953 
1030 2 3.72375 3.40954 2.78366 -0.222171 -0.0799572 0.516726 6.74881 8.94567 19.5694 
1032 3 3.8706 3.42389 2.48159 0.377412 -1.33258 1.2477 3.98643 7.88812 -7.45771 
1031 3 3.93442 3.5878 2.98685 1.37175 -0.192211 1.26698 -11.0839 -9.39993 -10.7762 
1353 3 1.39724 4.56326 3.1522 -1.11686 -0.586951 3.2458 5.34868 3.59574 -1.92527 
1352 3 0.893679 4.48609 3.22004 -3.73249 0.755583 0.541284 2.24603 11.6962 -5.22877 
1351 2 1.10525 4.72803 3.10062 0.159488 0.319214 0.181067 -7.5947 -15.292 7.15405 
1026 3 2.42175 4.84955 3.23356 1.62353 -0.505024 -0.0101389 -0.0188792 -1.01037 0.892236 
734 3 4.23382 4.70565 2.50681 -0.560132 -2.08322 0.984303 0.708859 -39.3431 -14.2259 
1109 3 0.232143 5.41174 2.78666 2.23834 -0.787307 0.596583 3.78755 2.82096 -9.59828 
1108 2 0.145108 5.38363 3.11061 -0.386878 0.229983 -0.345976 -8.43227 -11.2671 7.32561 
1059 3 2.8132 5.38285 2.44901 -0.835391 0.290717 -1.87875 -8.74375 -2.62453 -2.29228 
1057 2 3.14661 5.3382 2.44265 -0.166043 -0.785594 -0.475692 11.7971 -0.122436 -11.6687 
1062 3 4.05256 5.51156 3.07358 -2.87696 0.106848 -1.26772 0.373032 -3.63371 16.1687 
1060 2 4.12615 5.53614 2.74885 -0.345281 0.0351717 -0.784464 3.93671 42.6771 -13.7292 
1034 3 5.03803 5.12519 3.0126 0.497025 -0.467114 -1.26467 3.02116 -7.85545 5.1585 
1033 2 5.14064 4.85673 3.19531 0.0599898 0.0108191 0.326308 -6.77318 12.6573 10.7369 
937 2 1.62121 0.788436 4.03947 -0.438333 -0.041016 0.184799 3.35139 -1.24783 5.93446 
938 3 1.95282 0.787422 3.97592 2.21097 -0.405335 0.716103 4.40799 -0.240529 -0.368017 
611 3 3.02931 0.547411 3.34722 -1.72977 -0.726078 1.09146 0.624022 1.07789 -2.51112 
970 2 3.50365 0.0856144 4.00641 -0.0702827 -0.460979 -0.0315516 0.822422 -2.86989 -7.42746 
1187 3 4.62618 0.117692 3.53434 0.578386 0.718088 1.57338 0.862078 -1.54117 0.127952 
948 3 5.63165 0.210225 3.60606 -1.06765 2.29719 -0.878268 -3.39315 11.5491 5.26711 
904 2 0.374474 1.08806 3.3165 -0.248786 -0.59891 0.278125 6.70926 -0.248628 1.13273 
906 3 0.597539 1.29832 3.46238 0.910233 -1.62635 0.44602 -1.86009 -9.49909 -1.31967 
939 3 1.50642 1.02476 3.82957 -0.177167 -0.498557 -0.748021 -5.70415 7.93742 -6.69042 
944 3 3.90261 0.990138 3.61637 0.492457 -0.0159315 0.919384 6.01178 0.395286 -20.6069 
943 2 3.96095 0.896981 3.93314 -0.118345 0.00790726 -0.301465 0.0490758 -4.4468 13.5745 
945 3 4.29211 0.947573 3.9755 0.523172 -0.438841 -1.92885 -1.92148 -20.2912 -7.32231 
645 3 5.23017 1.14089 3.68773 -0.414154 -1.17733 -0.407543 -1.01774 -0.160923 0.397128 
643 2 5.52382 1.27133 3.79336 0.305649 0.112865 -0.517956 -19.5018 3.29403 24.3288 
1263 3 0.429018 2.09872 4.02945 0.0677316 0.40408 0.909443 -28.2828 25.334 18.5027 
696 3 1.3221 2.04778 3.59095 -1.04108 -0.11892 2.03483 9.4285 -19.7308 1.17916 
694 2 1.25682 2.36885 3.52583 -0.325333 -0.0859863 -0.424937 -14.4582 16.031 3.27637 
637 2 2.29588 1.69707 3.31734 0.118853 0.246327 0.348526 -4.69207 -20.0886 -15.8242 
639 3 2.2875 1.68046 3.65316 -0.547445 0.7903 0.2488 -0.351766 -1.00439 8.29252 
672 3 3.29 2.0179 3.37758 -0.1424 0.718105 -1.18573 4.75016 1.4989 -18.4527 
675 3 4.41867 1.95279 3.71556 -1.53407 -1.83511 0.451972 36.4888 -8.84792 -1.5273 
673 2 4.09223 1.99061 3.76028 -0.307999 0.012564 0.0711667 -28.5689 16.3241 -35.0949 
1004 3 5.56802 2.40565 3.30412 -1.94678 2.1358 1.26516 7.01222 8.37499 -18.9666 
1003 2 5.3727 2.2056 3.48581 0.152479 -0.346412 -0.214029 -13.5619 -23.9476 -7.8901 
1005 3 5.35339 2.32884 3.79539 2.47438 0.855165 -2.19747 -0.639911 8.9232 20.1257 
993 3 0.658368 3.09653 3.44085 -0.0873938 -0.461188 -0.382803 5.72727 4.75227 -4.70078 
695 3 1.5086 2.49 3.34014 -0.678979 -0.54877 1.39291 9.58163 3.44018 -6.69052 
991 2 0.949594 3.23562 3.33679 0.0997095 -0.348142 0.122819 -5.01964 6.39005 -9.77057 
969 3 2.60369 2.75851 3.23884 0.889447 -0.884274 -0.639895 -3.30544 -6.98651 1.45007 
1308 3 4.02959 3.00507 3.81899 -1.93967 -0.700459 1.14989 -1.00777 1.81611 -0.450041 
996 3 2.11515 3.64803 3.33596 0.673737 1.28707 1.96073 1.77761 -1.71994 2.44021 
995 3 1.75898 3.41313 3.6435 -0.211555 -0.747669 2.10057 12.1777 -7.37046 -4.36834 
994 2 2.0945 3.44829 3.60958 -0.519753 -0.00344362 -0.154585 -3.44461 2.70929 -3.87157 
1304 3 3.033 3.30355 3.99414 1.14817 -1.08888 -1.51879 -0.231254 17.0884 -2.19513 
1303 2 3.03354 3.64086 3.93301 0.00901057 -0.431022 -0.228281 1.8109 -17.8228 -3.17621 
1305 3 3.12671 3.65286 3.60651 0.586038 -0.670048 -0.0969333 -1.57965 0.734431 5.37134 
1036 2 4.74692 3.69749 3.49595 -0.156806 -0.63681 0.406799 -3.5474 -34.4912 15.2706 
1038 3 4.89058 3.96713 3.36503 1.10146 -1.74349 -1.18969 13.7829 26.3913 -12.7866 
1037 3 5.00604 3.48511 3.562 2.72052 -1.89753 2.07407 -10.0998 7.93701 -4.47254 
1024 2 2.34931 4.57671 3.42018 0.49085 0.0254868 0.133398 6.36979 0.243872 4.92024 
1025 3 2.6045 4.55662 3.64411 -1.22331 0.0172866 -2.51093 -6.35091 0.766502 -5.81248 
1361 3 3.56189 4.6237 3.28164 0.243136 -0.103711 0.120264 -3.18152 1.27863 0.109897 
1360 2 3.72611 4.61436 3.57771 -0.365975 0.07475 -0.077398 10.3136 -5.15276 -5.7229 
1362 3 4.02307 4.47833 3.4786 0.614374 0.359514 -0.945765 -7.13208 3.87413 5.613 
1356 3 0.51997 5.09272 3.94106 0.575087 0.873106 0.750543 5.46599 0.0285671 15.8009 
1054 2 1.38581 5.64721 3.27142 -0.2602 -0.312281 0.419977 8.89742 2.20138 -9.91002 
1056 3 1.53755 5.51409 3.54044 0.830316 -1.18592 1.84566 6.25088 -1.06233 0.820332 
1359 3 3.15737 5.52771 3.50527 0.749364 0.194633 -1.37995 -4.62687 -1.98921 2.89036 
1358 3 3.05099 5.4439 4.00884 -0.246469 0.262072 -2.32877 3.20927 -2.75686 0.270173 
1357 2 3.26944 5.34475 3.76831 0.134082 0.232522 0.00126101 -6.06283 4.88096 0.446818 
1035 3 5.06632 4.95049 3.51621 -0.751586 -0.550966 1.35465 3.75203 -4.80185 -15.8955 
603 3 0.258822 0.626906 4.18096 2.02668 0.782172 1.31763 13.0485 -14.4604 -3.33807 
1206 3 1.22561 0.00639081 4.10246 0.38804 -0.814915 -1.03363 2.04462 -17.1234 -1.76429 
1779 3 2.40376 0.0347642 4.45308 -0.826643 0.67575 2.1487 -7.04056 -3.77176 4.98402 
972 3 3.4065 0.258077 4.27852 0.0987545 0.980662 -0.162014 -3.35493 3.21055 4.23981 
1243 2 4.85425 0.142784 4.59897 -0.0382255 -0.108587 0.191643 -8.82336 8.47597 -14.2374 
1245 3 5.06093 0.0262352 4.83514 0.592256 1.57118 -0.485985 10.8496 -6.50449 12.8561 
1244 3 5.04182 0.364697 4.42431 -0.424458 -0.499422 0.101731 -2.02623 -1.97148 1.38132 
1265 3 0.791045 1.28897 4.69191 1.77077 2.66745 0.685537 -1.0299 -3.53409 8.0417 
1266 3 1.20947 1.58773 4.62803 -2.47627 -0.179059 -2.03664 8.57727 3.76043 -1.06117 
1264 2 0.873648 1.61273 4.65148 0.322393 -0.33019 0.599989 -1.05076 7.85523 -0.743634 
1269 3 2.30678 1.23255 4.83667 -1.80261 1.29385 1.71426 15.518 -9.11944 -9.6765 
1267 2 2.01231 1.07489 4.81395 -0.0907013 -0.0466564 0.0656551 -15.3915 -8.40906 -1.02795 
1271 3 3.11567 1.30856 4.12874 0.706241 -0.549554 -0.0448641 -9.20002 7.44295 -33.2465 
1270 2 3.11663 1.27752 4.45854 0.00851249 -0.180217 -0.232528 -11.786 -2.27986 36.1109 
1272 3 3.43666 1.23863 4.55213 -2.3893 -0.731273 0.459834 11.6132 -1.49164 3.0472 
1278 3 4.84504 1.53979 4.54373 -0.450836 -0.971795 1.212 -14.254 -5.46692 13.2732 
1277 3 5.34944 1.61392 4.69669 0.379956 0.900441 0.212595 15.8216 -6.69541 14.5765 
1261 2 0.178355 2.30735 4.1521 -0.155564 0.245274 0.052764 21.4481 -35.3298 -20.9134 
1297 2 1.94445 2.36823 4.13782 -0.0436695 -0.116173 -0.0581189 -8.59116 -9.90387 -2.45242 
1299 3 1.94037 2.31036 4.47033 2.20602 1.03012 -3.13346 -2.83891 -4.61198 7.59335 
698 3 3.02787 2.32846 4.55366 1.95025 -0.464655 -0.360109 11.1786 0.972191 2.0562 
674 3 4.03107 1.89665 4.07156 -0.259197 -0.525564 1.0184 -13.945 1.66661 42.3178 
697 2 3.36581 2.30238 4.5815 0.401441 -0.490959 0.253857 -10.3775 -4.46042 -4.11048 
1276 2 5.11924 1.7175 4.47794 0.145234 0.118074 -0.369486 6.50923 20.8129 -19.5495 
1050 3 0.0477245 3.1483 4.36218 -0.703975 -1.40431 -2.01684 3.7185 10.1757 6.8131 
965 3 1.11833 2.87811 4.36711 0.40484 -1.71198 -0.166963 -3.91804 -0.39446 -2.86166 
964 2 1.03541 3.10533 4.60478 0.304494 -0.694742 0.00458461 29.0841 7.33958 0.844885 
966 3 1.33285 3.10303 4.7812 2.99131 -1.23369 -0.0650908 -20.935 3.26493 -8.48832 
1298 3 2.15789 2.62657 4.1217 -1.80456 -0.226274 -0.123834 10.1572 14.1391 -2.62023 
699 3 3.48357 2.56365 4.7585 0.241912 -0.252988 -1.94248 -9.27429 2.05592 0.843495 
1306 2 4.16667 3.18097 4.07245 0.150621 0.536471 -0.222383 7.91442 -17.1771 2.20965 
1274 3 4.66082 2.55516 4.48113 -1.086 -1.27019 0.154493 9.82803 -10.1227 -26.5566 
1273 2 4.76487 2.66083 4.78376 -0.291751 0.604686 0.319493 3.66816 1.38911 4.45416 
1323 3 0.993416 3.8779 4.06593 -1.21518 -0.608511 2.35022 1.19163 -4.5976 6.08317 
1028 3 2.26409 3.86557 4.40958 2.40783 -0.490893 1.43414 -1.28875 -4.3186 -4.95619 
1027 2 1.97946 3.73724 4.54459 0.0672603 -0.313675 0.209948 7.11291 2.63136 -4.23095 
1029 3 1.97254 3.92191 4.82758 1.39745 -1.22503 0.314502 -8.53805 6.56717 8.19952 
1307 3 4.05302 3.49544 4.07154 0.0495419 -1.5982 1.1226 -6.90666 15.3609 -1.75961 
1006 2 5.27851 3.54891 4.50382 -0.156618 -0.200592 -0.346414 -20.1804 13.8378 1.78098 
1007 3 4.93825 3.56646 4.55475 -0.81971 -0.379812 0.468893 25.7414 -4.70349 -0.661352 
1008 3 5.3665 3.87563 4.45856 -1.01584 -0.59688 0.976185 -3.9073 -12.989 1.86268 
1322 3 0.526197 4.09273 4.07081 1.62564 -0.731101 -0.880098 -12.7876 2.61818 0.370009 
1321 2 0.850661 4.18229 4.05012 -0.396919 0.140195 0.119549 1.08522 8.36053 -0.65349 
1325 3 1.64226 4.72491 4.14467 1.8711 1.06245 -0.367634 1.37124 -35.3728 -15.8196 
1902 3 2.95324 4.58113 4.67398 -1.36693 0.878776 0.532836 9.50839 3.40978 -0.701084 
1900 2 3.27409 4.69202 4.64589 -0.64976 -0.16586 0.113252 -7.7738 -6.29461 -3.15606 
1901 3 3.39958 4.50615 4.39112 2.93008 -0.0158967 0.62145 -1.73459 2.88483 3.85715 
1331 3 4.54273 4.45448 4.3351 -1.77713 1.76912 0.597923 8.1501 8.4213 31.832 
1330 2 4.62473 4.5293 4.66567 -0.312992 0.320972 -0.0290333 15.2402 -16.19 -43.0148 
1332 3 4.33346 4.63673 4.78672 -1.817 0.0542116 -2.93589 -23.6121 3.77597 13.9981 
1354 2 0.630226 5.09868 4.26487 -0.504757 -0.348511 -0.262856 -1.40463 3.40411 -15.1882 
1355 3 0.871766 5.33701 4.25813 -0.631829 -1.5415 0.0920614 -15.6581 -2.16766 7.01053 
1324 2 1.69354 5.01641 4.29782 0.202698 0.136875 -0.26184 8.25471 23.2507 12.7235 
1326 3 2.03046 5.01117 4.33623 2.26245 1.62462 1.20585 0.647688 3.60464 1.89557 
1391 3 4.00362 5.56621 4.50398 -1.97298 -3.05441 0.981178 -2.30168 1.07807 0.256943 
1392 3 4.1721 5.33468 4.04644 -0.119857 -2.22449 0.902248 2.51022 4.78196 17.0802 
1390 2 4.26655 5.40544 4.36649 -0.0335608 0.412288 -0.262752 -1.12867 1.19224 -15.8768 
1334 3 5.44611 4.88872 4.49331 -1.32152 0.972787 -1.9875 -7.39312 10.643 12.1909 
1333 2 5.34305 5.10161 4.74191 0.347603 0.278153 -0.016213 16.12 -9.15978 -9.43658 
1234 2 0.795499 0.329576 4.97795 -0.003088 -0.0298909 -0.073073 -2.2736 -0.890968 -8.65743 
1235 3 0.587664 0.445089 5.21646 -0.738685 0.109958 -0.714312 -6.21181 3.06507 5.10312 
1236 3 1.07982 0.266217 5.14665 -0.609475 1.14826 -0.667955 8.4854 -2.1741 3.5543 
1238 3 3.01527 0.618158 5.22589 -0.532606 -1.17487 -3.09798 0.761396 3.62055 -2.54878 
1239 3 2.94747 0.11398 5.32918 0.564526 -0.423546 -0.0027775 -4.96241 -32.2091 29.8967 
1237 2 3.00713 0.315566 5.07363 0.155925 -0.00454392 0.276222 7.67735 28.2622 -31.309 
1240 2 4.0151 0.684008 5.04783 0.441169 -0.384775 -0.223005 1.8606 4.62122 -0.523633 
1241 3 4.01643 0.347001 5.06327 -1.12326 0.270114 -0.720537 3.62681 -0.978739 1.87388 
1242 3 4.33079 0.79229 4.99039 1.12517 2.44943 0.305678 -3.59195 -2.64951 -9.94911 
1543 2 5.31688 0.694058 5.60453 -0.155005 -0.307993 0.103859 -4.274 11.2551 -4.71478 
1545 3 5.62026 0.648037 5.46212 0.250794 0.0898252 0.012865 -2.41739 1.71918 0.277697 
1536 3 0.132088 1.56752 5.63887 0.543026 0.0424053 -2.29356 -16.2456 5.50759 -7.65775 
1538 3 1.09199 1.29627 5.65662 1.78579 1.1544 -1.20315 9.54044 -5.65384 5.45853 
1268 3 1.97407 0.819836 5.03282 -1.35073 -0.0578606 -0.509482 3.04524 3.92682 -1.93649 
1544 3 5.19581 0.990122 5.48539 2.29487 0.0639305 2.01089 6.69139 -12.9743 4.43708 
1296 3 0.528004 2.41232 5.03264 1.31089 -0.309347 -0.0802217 -15.8294 -5.2428 -10.7727 
1295 3 0.920155 2.23727 5.34242 -2.00493 0.0886363 0.533836 -5.32367 -13.4745 2.21485 
1568 3 1.9116 1.90407 5.44528 1.23272 -1.59689 0.042303 -3.3531 -7.60122 13.5482 
1567 2 1.8596 2.22291 5.35743 -0.00104245 0.540761 -0.0334692 -3.64014 28.0124 17.158 
1569 3 1.84667 2.38213 5.66291 0.656653 -1.27978 0.394501 -3.88011 -12.7968 -12.4436 