ITEM: TIMESTEP
0
ITEM: NUMBER OF ATOMS
3000
ITEM: BOX BOUNDS pp pp pp
0 11.33
0 11.33
0 11.33
ITEM: ATOMS id type x y z vx vy vz fx fy fz 
336 3 0.819063 0.439747 0.51803 2.41957 0.291146 1.81105 -43.3526 -9.1499 -62.2054 
334 2 0.956725 0.167698 0.649683 1.07548 1.57585 -0.52273 -13.4907 -67.8409 -13.8837 
5 3 1.80669 0.230529 0.0834775 2.57555 -5.03365 -2.32873 12.3212 57.5528 -45.1414 
308 3 2.84446 0.450659 0.683489 -1.57742 -5.42169 -5.39587 7.8464 -15.6327 9.8124 
45 3 3.8341 0.606954 0.208851 -3.71669 -5.84334 4.92571 -34.1204 -24.5951 -45.3836 
318 3 4.7219 0.204921 0.375489 -2.18538 -0.0990067 2.31816 17.2255 15.4272 -16.4962 
316 2 4.91014 0.312143 0.112586 -0.103332 -0.0917219 0.588502 4.07677 -16.7059 52.4452 
317 3 5.22522 0.248632 0.225309 5.24201 -5.94312 -0.387836 -19.4318 -2.87713 -5.37189 
32 3 0.517175 1.31792 0.0773692 0.773509 0.0882158 0.234052 -0.1885 -33.2345 19.2442 
39 3 1.35912 1.22766 0.675779 -0.916433 -5.28526 -0.691663 -57.4617 48.3451 -85.8151 
2739 3 2.42203 1.14732 0.130809 5.03344 1.76899 -0.0680491 -10.2254 -68.9573 -57.4668 
2737 2 2.41811 1.43422 0.281663 1.49069 0.888536 -0.771439 25.8577 57.5917 37.6851 
41 3 3.73592 1.57107 0.62832 3.15262 -2.16582 4.91836 -22.627 33.4155 -32.9201 
42 3 3.29836 1.59553 0.345439 1.16689 1.77351 0.224753 -2.89756 1.53181 -2.24001 
43 2 4.04953 0.858036 0.189844 0.796198 0.760482 1.04275 34.6376 34.8588 -41.0579 
347 3 5.62671 1.25043 0.236467 1.67266 7.32451 -2.07236 -32.561 34.3125 -28.6485 
348 3 5.10401 1.29182 0.0325356 -2.58392 -3.43773 -0.955104 50.0426 -9.36693 -8.5048 
33 3 0.718569 1.82177 0.0945235 1.30035 -0.16431 -5.45052 -6.85191 -8.76244 15.0041 
65 3 1.44338 2.28595 0.622893 1.91832 0.895642 0.0314549 6.53751 2.71483 7.03311 
2738 3 2.19686 1.67959 0.295305 0.855238 6.66379 -2.32268 -27.1785 27.353 0.189276 
40 2 3.53436 1.82168 0.433938 0.137102 -0.496919 0.171366 29.8131 -40.0436 29.5484 
75 3 4.58396 2.13941 0.264219 -1.13603 4.79454 -1.17849 -57.3088 17.0968 -23.5541 
73 2 4.88129 2.06573 0.38002 0.85083 2.29227 -0.359049 71.8747 5.45136 28.3927 
74 3 5.14097 2.28746 0.359245 1.88914 -0.0360482 -1.81185 -10.0245 -33.3315 35.699 
61 2 0.130489 2.76802 0.701323 1.28536 0.137406 -0.114301 4.52241 -23.7557 -9.3601 
62 3 0.138951 2.43334 0.62169 -2.60115 -3.25179 -1.78948 -7.7866 31.5543 12.8361 
95 3 0.904782 3.02977 0.144079 1.65426 -5.92526 7.4602 24.8598 18.6162 44.3721 
94 2 1.14274 3.09705 0.392934 0.333467 -1.26977 -1.00149 -59.8875 3.14632 15.2322 
96 3 0.925911 3.16754 0.677257 -1.98078 4.08077 -1.03883 20.7303 -17.4198 -48.3248 
97 2 3.36434 3.0231 0.794535 0.399665 1.49183 0.252534 22.8595 -1.71809 17.9233 
402 3 4.53783 3.12999 0.537074 3.0709 -0.71701 -2.008 33.9399 24.7283 2.28408 
92 3 0.00875985 3.72782 0.284425 -0.655199 2.30962 -8.27603 40.1687 13.4165 26.0141 
91 2 0.162782 3.85912 0.567993 0.404599 1.3201 0.337275 -14.3952 -15.5602 11.0384 
395 3 2.25924 3.63522 0.456198 -0.654413 4.05595 4.20333 -9.61672 4.15773 19.6119 
396 3 1.81443 3.59002 0.789785 1.54003 -2.87977 1.5021 31.7258 5.87906 -37.8161 
394 2 1.94361 3.51984 0.476508 -0.425094 0.959955 -0.159284 -18.6668 15.9561 34.7334 
98 3 3.18597 3.24727 0.622196 -1.88225 -0.671184 4.15467 -17.2308 7.50746 -9.18922 
401 3 4.62555 3.63227 0.44627 -3.99605 0.232538 1.36184 -8.66626 21.3339 -12.021 
400 2 4.80229 3.36735 0.545016 0.0634699 0.411889 0.644647 -21.5677 -51.853 6.52118 
404 3 5.60282 3.68647 0.735699 -2.08083 3.41285 2.36559 4.8147 -6.82887 -16.6923 
122 3 0.615544 4.73792 0.363579 0.471325 -0.448033 1.99857 25.1176 -5.5934 16.6982 
121 2 0.771418 4.53262 0.588828 -0.905576 0.249593 -0.26736 -12.2158 -11.5243 -46.8473 
123 3 0.973584 4.35558 0.372384 3.41473 -0.431868 -1.31542 -23.4386 12.3817 18.9591 
425 3 1.96623 4.58637 0.469299 1.38281 -1.59891 -2.2876 46.9204 38.7976 -52.9714 
731 3 3.12021 4.23321 0.593318 -2.6485 3.38505 -3.97531 -29.8228 8.51291 24.2095 
106 2 4.87932 4.39739 0.0539238 -0.0312205 -1.22879 -1.10786 43.9797 8.71251 1.30805 
107 3 5.2231 4.47369 0.0897569 0.975692 -2.26591 2.55006 -41.0342 -9.60552 7.20482 
153 3 1.15313 5.57775 0.47234 -3.73746 2.40997 -2.22303 23.749 -2.37858 -1.99344 
151 2 0.823251 5.62475 0.481302 0.663547 0.603814 0.809969 -34.0591 29.6376 -29.7749 
426 3 2.39791 4.87823 0.287347 1.46564 2.27639 -5.59381 -1.0445 -6.71573 -3.65193 
424 2 2.07177 4.907 0.361527 -0.351291 0.538273 -0.439992 -25.5842 -43.7665 13.978 
457 2 3.34709 5.45475 0.704203 0.023227 0.752813 0.609954 -3.22264 10.3684 23.2474 
458 3 3.31297 5.20991 0.479194 -1.99278 -4.28534 4.69609 -5.10814 -14.2862 -19.8577 
465 3 4.47691 5.1604 0.341101 -4.96237 2.07073 0.322248 -84.1584 18.9992 11.3292 
463 2 4.21322 5.37703 0.459791 -0.0911926 -0.891753 -1.92265 33.718 -63.8641 -0.75549 
464 3 4.23699 5.35795 0.799906 -1.7146 -5.0806 -2.60365 14.3287 12.7633 -2.89172 
138 3 5.43517 5.61797 0.112321 -3.39175 -4.11646 -3.69663 0.829964 4.24687 19.577 
137 3 5.30491 5.54273 0.614058 5.5446 0.7435 -1.67145 83.1528 36.8339 -14.6789 
635 3 0.949442 0.459591 1.47654 -1.22762 -0.245041 -3.52194 -14.0631 39.408 27.4368 
307 2 2.76317 0.438303 1.01018 -0.887099 0.410649 -0.291593 -43.3559 -10.3928 32.0087 
309 3 2.46499 0.365864 1.19431 -0.904551 1.88437 -0.944282 52.334 37.4878 -10.12 
312 3 3.7605 0.685975 1.16995 5.08187 -6.92283 -6.30702 -4.52306 8.19091 34.4858 
310 2 3.87253 0.616712 1.48036 -0.76009 0.0827291 1.0676 4.3936 4.8799 3.27212 
311 3 3.72886 0.31739 1.53713 -3.86207 2.13685 1.11166 -27.8099 -1.92148 9.63247 
314 3 4.69969 0.220009 1.34942 -4.84744 4.94058 1.69415 -11.3628 -43.7188 41.973 
19 2 5.54963 0.480214 1.07637 0.634232 0.786245 0.428596 27.9668 17.9987 -11.2657 
21 3 5.50298 0.788272 1.21304 -1.72507 3.51193 1.5444 -5.88699 7.16481 14.7282 
361 2 0.404543 1.48288 0.95941 0.659648 -0.154848 0.224797 -9.29526 -25.817 -24.063 
363 3 0.283297 1.17518 1.0446 1.80358 1.13422 2.88991 10.6968 9.45054 -19.4787 
37 2 1.56845 1.19761 0.919187 -0.847614 0.221999 0.613991 84.7105 -33.0819 89.06 
38 3 1.66965 0.869481 0.895336 1.64232 3.34676 3.18883 -17.7451 27.4076 -1.62275 
338 3 2.67574 1.34841 1.11681 0.41117 4.61828 -4.18899 4.2343 -13.5071 6.60043 
343 2 4.59744 1.23577 1.25644 -1.16684 -0.498875 -0.120972 21.4618 -31.866 30.9006 
345 3 4.6199 1.15394 0.937508 2.24303 -1.91575 0.0276865 -4.88486 -5.86373 -44.8626 
344 3 4.44329 1.50912 1.35679 -1.17252 -2.01791 1.69895 -27.3392 21.6192 1.328 
362 3 0.452019 1.62733 1.25519 -1.02301 -0.855341 3.15692 -29.5271 14.0709 17.3284 
64 2 1.47306 2.37732 0.952768 -0.408981 0.452959 0.0436605 21.3764 8.6495 -28.4491 
66 3 1.20168 2.21087 1.05031 1.91759 -2.07217 1.7989 -23.8469 1.97325 -11.9224 
339 3 2.23616 1.63918 1.36064 6.04661 -3.46896 9.06959 -66.9731 -0.698082 45.5483 
337 2 2.50632 1.63075 1.17901 -0.373673 -0.507552 1.39279 63.4013 11.0969 -45.0672 
372 3 3.24663 2.15251 1.26858 1.90132 6.41897 -1.68415 -1.41162 24.4654 16.2461 
370 2 3.34504 2.42484 1.45608 -1.47966 -0.267731 0.452249 -102.435 1.96597 -30.6993 
371 3 3.65646 2.3531 1.51152 0.241178 1.80934 -7.35234 92.3129 -24.0316 10.5375 
377 3 5.48737 1.82217 1.53203 -2.56275 3.51779 -3.17712 -59.3052 -10.6206 32.2016 
393 3 1.41534 3.18477 1.60053 0.486498 -2.32956 -4.38788 -62.3315 40.5841 -6.16978 
366 3 2.31672 2.93248 1.3758 0.724618 -2.29848 3.10248 62.5394 -6.81332 -34.1253 
365 3 2.32002 2.72738 0.927627 1.60817 0.0285544 -0.689687 -0.748917 -23.5635 -21.3039 
364 2 2.43889 3.01546 1.05254 0.0829253 0.665161 0.446916 -10.6231 -4.85473 51.6146 
374 3 4.69597 2.46459 1.32191 3.3936 -2.06137 -3.23764 14.6434 -15.01 4.14281 
375 3 5.08015 2.72947 1.48553 5.06388 -0.372645 -4.68939 45.2756 13.6771 -6.62808 
93 3 0.169849 3.83566 0.91771 4.40564 0.436528 2.39503 -3.50946 -3.71216 -46.7683 
391 2 1.23582 3.46699 1.50153 0.431926 0.285044 1.03623 16.855 -64.1412 7.64595 
99 3 3.58801 3.24267 0.933476 -0.506094 0.95622 2.80842 18.2855 -18.2148 -38.0664 
705 3 4.96745 3.70329 1.56297 2.50807 -0.881184 -0.0201277 6.86261 27.5045 -15.9278 
423 3 0.410598 4.64514 1.44373 -0.284933 -4.32484 0.491707 12.7851 -7.57589 44.0568 
722 3 1.35818 4.78434 1.18386 4.49214 -1.30779 0.959081 14.9933 25.3526 68.3601 
721 2 1.57717 4.59199 1.36854 0.557677 0.421792 -0.428045 -13.1174 18.8867 -13.3864 
723 3 1.39204 4.31082 1.35248 -4.63679 -3.85242 -0.871524 14.5939 31.0415 -11.6451 
732 3 3.05521 4.18367 1.1067 -1.45329 0.853785 -0.283661 10.7591 1.05449 23.105 
730 2 2.87012 4.15757 0.829633 0.51704 -0.0570477 -0.152557 18.541 7.46514 -45.6106 
430 2 3.94018 4.11419 0.942063 -0.17232 0.87457 -1.04253 36.936 26.3118 29.6741 
431 3 4.13999 4.391 0.867615 2.019 0.787202 3.20005 -29.8706 -55.7315 4.71208 
432 3 4.07752 4.09052 1.26473 -0.580228 -2.33866 2.70508 -18.3418 -8.71631 -22.3363 
434 3 4.81402 4.76717 1.5365 7.24358 1.2518 2.40745 -7.93234 -15.0578 2.91354 
435 3 5.12805 4.67872 1.12195 -2.24296 0.297499 -3.611 -5.28938 21.2997 19.2314 
156 3 2.062 5.6115 0.887236 -7.18835 1.81058 0.244023 -20.3708 -22.2075 8.96612 
459 3 3.19369 5.32147 0.978047 6.4278 0.381612 -0.300659 4.50605 5.36517 -6.11715 
429 3 2.44472 4.95737 1.5539 3.17226 -0.690554 -1.03655 40.1641 -14.8291 -97.1854 
433 2 5.05264 4.92133 1.35838 0.446323 0.47919 -1.58945 17.1397 -14.9976 -28.9147 
302 3 0.131308 0.112025 1.90647 -5.46478 -1.10542 3.69824 -6.78713 10.739 -30.2921 
634 2 0.900598 0.614444 1.77169 0.414918 -0.861036 0.472132 -2.33064 -5.41591 6.10352 
305 3 1.74253 0.0578623 1.85985 -0.707837 2.0489 -0.73921 -6.20155 -10.3284 1.87906 
608 3 2.31777 0.779343 2.18007 -3.13066 -2.29507 2.19071 -2.33697 67.0241 27.9741 
614 3 4.4184 0.759686 2.18014 -3.31009 -3.00248 -0.529137 -2.58815 -10.9993 -20.8036 
613 2 4.27207 0.558321 2.40159 -0.603245 0.0392461 -0.746359 1.2609 -26.2449 27.3828 
617 3 5.41841 0.391905 2.12826 -1.56787 5.55409 -0.993682 -0.631301 -0.697149 -3.388 
616 2 5.62598 0.149746 2.24271 1.18336 -0.79564 -0.356234 -0.175552 6.67982 13.633 
963 3 0.153868 0.999941 2.35755 -0.339017 1.27046 0.685355 22.0164 -4.54883 8.50128 
636 3 0.955917 0.945806 1.75321 -5.59866 0.549775 2.05325 13.3563 -11.8919 9.11808 
609 3 1.87249 1.09551 2.18734 2.09518 1.94734 0.40381 -21.3387 -11.9708 -9.94233 
607 2 2.18196 1.08406 2.30733 -1.03718 0.478378 0.353128 50.3494 -43.2126 -5.3008 
640 2 3.34087 1.31091 1.7736 -0.297407 -0.831263 -0.8867 31.6954 56.8993 -26.2728 
641 3 3.25927 1.0661 1.97658 -1.25768 2.56036 -1.07054 -26.2554 -31.2202 34.178 
642 3 3.58532 1.46949 1.95679 -2.36292 -1.06838 3.86811 20.1111 -35.3505 -26.004 
341 3 4.91979 1.58037 2.35983 6.47806 -0.909398 4.98625 27.5644 -43.6382 -42.9637 
663 3 0.315306 2.1086 2.20799 0.530421 -0.480089 0.593783 10.0934 -8.21688 -10.6221 
661 2 0.398143 2.27124 1.92399 0.619819 0.502828 0.308153 -3.21714 -3.92205 0.627631 
665 3 1.31521 1.89703 2.02414 -4.6056 -2.26258 7.64589 21.0953 -0.898712 -22.0598 
664 2 1.65726 1.93666 2.02571 0.245503 0.37927 -2.23714 -24.2237 47.0374 -17.0891 
666 3 1.65041 2.27752 1.9093 -5.46644 6.62036 -7.73875 15.0896 -61.2286 38.5679 
667 2 2.79202 1.97104 2.03634 -0.173214 0.87117 0.265775 20.1592 -31.7181 23.3895 
669 3 2.62333 2.25322 2.08525 -0.962614 -0.816417 -2.36252 -14.0721 38.776 -26.7098 
668 3 2.83795 1.91837 2.37539 0.844982 5.47625 0.915952 -45.2157 17.0823 -32.5435 
342 3 4.47581 1.83546 2.29246 -3.39842 -3.60894 1.17607 -67.2251 12.3406 -36.4464 
662 3 0.579712 2.51699 1.78256 -3.55863 -2.70033 -0.597208 -6.47926 9.39219 -2.66777 
397 2 3.07944 3.14982 2.03233 0.688254 -0.657642 -1.50203 6.75592 12.9295 -27.8703 
373 2 4.83247 2.55958 1.62802 -0.927244 0.236713 -0.00798781 -37.1474 -25.6148 -16.4932 
702 3 4.17471 3.14919 1.77854 0.903684 0.313113 2.40419 -15.1586 34.6909 2.69137 
700 2 4.11463 3.12224 2.10588 -2.2049 0.371123 -0.37345 -1.88986 -19.2361 15.5046 
419 3 0.081324 3.4053 1.83419 -1.99874 -0.202267 -1.12506 19.8911 -4.82746 12.1191 
392 3 1.06328 3.49117 1.78903 0.0417059 2.78377 -1.50295 -12.5666 -36.4151 -10.3844 
728 3 2.21042 3.8425 1.74069 -2.20781 -2.40924 1.43061 20.5065 34.0072 27.2299 
399 3 3.15215 3.38004 1.78465 3.94807 -1.12568 4.14027 -25.4879 -12.2536 57.6683 
727 2 2.45946 3.99747 1.92507 -1.04162 0.1857 -0.140076 -13.9963 -24.0907 -33.7558 
398 3 3.04872 3.34463 2.30463 -1.15028 0.00111685 -3.52321 -1.09538 5.5733 8.92168 
701 3 4.07567 3.43227 2.22546 -0.00700899 0.40293 -0.653521 -2.00458 16.8839 5.88777 
704 3 5.07704 3.55419 2.05131 2.56448 -0.564557 0.40303 4.83918 -13.8292 11.0339 
703 2 4.95529 3.81496 1.87957 -0.504621 -0.450712 0.905594 -6.04402 15.7965 2.58536 
421 2 0.557333 4.62906 1.76047 0.278655 -0.452492 -0.591862 -11.6163 53.6392 -50.0511 
422 3 0.534367 4.31644 1.8612 0.450463 -0.0560743 3.90221 -13.2368 -37.811 7.48365 
729 3 2.35149 4.16075 2.19565 -1.73643 -1.19677 1.7304 21.4941 27.1102 -13.1392 
733 2 4.14542 4.36255 2.35544 -1.15945 -0.879584 0.820384 -12.8549 -3.37306 22.664 
753 3 0.875501 5.44394 1.90102 0.394001 2.77969 6.4394 -21.2881 40.2033 -43.474 
428 3 2.05047 5.18713 1.82215 1.70789 -2.06466 -3.76493 -29.7004 4.09746 8.49828 
427 2 2.32467 5.00083 1.85149 -0.587108 0.0989471 -1.27948 -14.5857 -2.42166 98.8827 
461 3 3.11661 4.85716 2.34838 -7.13984 0.0323991 2.51084 -13.0077 -4.16077 8.67972 
462 3 3.39377 4.8723 1.90558 1.67313 0.695554 -0.111706 1.89756 -32.3496 -82.5511 
460 2 3.40547 4.96714 2.21732 -1.39158 0.737021 -1.62387 13.5294 27.9559 73.8474 
764 3 4.48313 5.50662 2.10824 -3.27327 -0.918025 -0.395597 36.7187 21.7748 67.595 
763 2 4.30964 5.43995 1.83889 0.078773 0.0774631 -0.142528 -48.7691 -0.555961 -59.8712 
468 3 5.50961 5.50219 1.87975 3.52816 0.467795 -6.46065 28.9333 13.6982 -49.237 
604 2 0.765268 0.155983 2.87765 0.549513 0.181623 -0.0718291 40.9014 37.4269 -1.5368 
606 3 0.96453 0.160366 2.59979 2.02797 -2.04041 -1.77716 -8.28068 -3.39813 6.4743 
605 3 0.914608 0.403545 3.0547 1.61473 -3.52252 1.65006 29.612 -60.8869 -43.3753 
909 3 2.24493 0.169509 3.06014 3.98816 -0.683843 0.992122 22.5236 -26.6914 -29.1225 
908 3 2.03864 0.603559 3.18697 0.234935 -3.35381 -2.65515 7.67198 -26.7393 12.621 
612 3 3.13394 0.620157 2.85129 -1.3029 4.54355 2.77025 43.8202 -40.3237 -6.15704 
615 3 4.51132 0.38009 2.57076 -1.10331 2.06557 -1.27487 -16.6525 33.1314 -42.07 
618 3 5.66201 0.251384 2.56723 -2.45989 -2.35605 0.418674 18.448 -4.67307 -33.4412 
934 2 1.27417 1.5351 2.90567 0.113103 -1.59586 -2.05054 32.2706 30.2048 6.13129 
935 3 1.01853 1.35416 2.80004 9.56379 -0.534103 -1.49511 -47.0266 -16.491 -21.5339 
936 3 1.35692 1.35266 3.17556 7.13615 -2.7133 1.7429 13.1015 -5.62132 19.98 
610 2 2.89428 0.82014 2.95237 0.995287 0.242888 -1.20719 -29.6872 90.5643 20.9872 
611 3 3.00853 1.16403 2.96071 -0.590927 1.96463 -3.26785 -8.93291 -87.5856 21.7323 
944 3 4.07329 1.18872 3.07134 1.3876 3.81419 -0.852456 -31.8382 32.4322 -80.1298 
644 3 5.14819 1.16234 3.22386 0.0384555 -1.48678 0.0602608 11.1447 26.9566 0.623661 
695 3 1.41738 2.40769 2.86233 2.9884 0.688933 -1.84234 -21.3676 5.88438 -52.6385 
639 3 2.25048 1.80782 3.16275 -0.619098 1.81063 -3.6798 -9.98855 -1.13752 3.06632 
671 3 3.75738 2.22219 2.89712 -3.59453 -0.234001 2.75382 -51.7734 -23.6793 -30.8198 
670 2 3.69033 2.20008 2.56091 0.610959 -0.5182 -0.339466 -0.295273 15.9129 18.0164 
340 2 4.73473 1.81601 2.49064 1.59087 0.606767 -0.18031 18.9088 48.8593 76.2516 
993 3 0.660506 3.13775 2.67422 1.47366 -1.7169 4.35551 15.664 -15.0267 2.07304 
991 2 0.656866 2.88167 2.91059 0.919658 -0.275263 0.570474 1.23482 30.1117 -17.6995 
992 3 0.696521 3.09405 3.17302 6.62924 2.24034 5.44599 -23.4171 20.6566 6.8838 
694 2 1.59519 2.46096 3.13495 0.112674 -0.883896 0.184065 10.9606 2.94983 54.1498 
968 3 2.59787 2.72686 2.95044 4.20843 -7.4371 1.41044 44.2761 -23.6815 18.3063 
967 2 2.85242 2.52245 3.08988 -0.0259475 0.145135 -0.768662 -31.4579 30.9752 -12.0833 
672 3 3.59346 2.52378 2.50823 2.58479 1.69883 -0.222264 26.2781 8.46574 1.6716 
1001 3 4.7182 2.71972 2.72509 -0.248132 0.939828 -1.80844 -30.93 6.49206 -4.21959 
1000 2 4.4567 2.73787 2.94559 2.03394 1.55466 0.95814 38.9021 8.67997 -23.2525 
1002 3 4.54692 2.9798 3.15781 2.51679 1.03446 -1.12733 5.44253 17.0312 12.9338 
726 3 1.53635 3.79748 2.57874 4.08127 5.43427 -0.481783 -11.958 -2.37156 56.6151 
725 3 1.77692 3.35517 2.51209 1.27359 -0.284246 -5.97606 33.4485 -77.157 -75.9474 
724 2 1.70225 3.55609 2.75457 -0.323447 -1.3829 -0.909354 -31.4988 76.2545 72.6554 
998 3 2.51422 3.77704 3.09449 2.22149 -3.02166 1.66894 42.9637 -7.45761 6.01333 
1030 2 3.6206 3.75139 3.22408 -0.261808 -1.48702 -0.848966 20.0522 -37.6755 10.9037 
1032 3 3.63624 3.40681 3.15801 -2.57037 3.86197 2.05755 -1.97414 39.2497 7.33486 
1037 3 4.90976 3.96386 3.23317 1.90745 -0.39951 -2.30063 -59.2377 -43.9303 -140.204 
750 3 0.0638617 4.8056 2.58096 7.33506 2.95512 8.61513 16.2092 19.9187 13.8625 
1022 3 0.684839 4.0988 3.03815 -3.37522 -0.857048 -3.85797 -22.761 13.0493 21.1497 
755 3 1.29486 4.76051 2.47763 -5.44271 -0.67436 2.41658 3.04049 11.8578 19.5242 
999 3 2.79618 4.23903 3.12627 5.46202 -2.34399 -0.853301 25.6803 -32.5055 11.5112 
734 3 4.00245 4.33615 2.66846 1.72209 6.42288 -2.9105 5.35692 8.40225 -33.8598 
735 3 4.4187 4.53873 2.4464 -2.44266 -0.375628 3.92178 10.0631 5.24084 -3.4863 
1065 3 5.50521 4.69074 2.54706 -1.42349 2.43287 -2.43989 -10.0033 21.1321 4.86979 
754 2 1.26711 5.07963 2.60156 -0.959285 0.250085 0.797291 -9.98928 -18.9779 2.11898 
756 3 1.00258 5.08245 2.8181 1.34792 -2.36298 3.41833 14.7088 -5.36147 -4.11768 
1059 3 2.22658 4.9656 2.8437 4.72279 4.78646 -0.642364 -42.6134 27.5906 2.10002 
1057 2 2.06483 5.08827 3.12288 0.0268815 0.506892 0.0931169 -5.87289 -9.91176 -35.2401 
1034 3 4.1837 5.22796 3.21664 3.8038 -0.310748 -3.99177 3.54183 21.7225 -28.1658 
1063 2 5.38203 5.00875 2.58326 -0.0104158 -0.735944 0.553313 20.4207 -48.1539 9.05079 
1064 3 5.17707 5.06121 2.83948 -5.08419 -6.19739 -2.34373 -31.1683 2.9707 -4.90436 
905 3 0.410243 0.771401 3.88743 2.7077 4.84851 0.515562 -40.3793 -31.1005 20.4368 
939 3 1.36877 0.657092 3.90984 -2.49372 -1.20878 -0.480625 17.311 18.2417 11.8362 
907 2 2.07718 0.274273 3.32448 0.321185 0.00355908 0.862599 -28.1594 64.1076 17.7972 
970 2 3.07528 0.563294 3.86281 0.607876 0.846944 0.691444 0.909901 23.0095 7.77 
972 3 2.75043 0.510041 3.9407 5.75702 -2.64369 -0.640592 -0.976807 -6.02073 -21.0909 
945 3 4.02227 0.768962 3.4067 -1.04458 -1.04585 2.96125 14.9507 29.5603 -5.8204 
1186 2 5.22461 0.0695043 3.60857 -0.0917009 1.29097 1.47048 7.3073 -10.8451 6.82932 
1187 3 5.07017 0.207449 3.34544 2.68025 4.13014 -3.38473 -6.66164 -45.6237 46.6779 
906 3 0.287881 1.15232 3.60726 5.78508 -4.81905 2.47471 7.13141 40.4041 -17.7239 
904 2 0.54338 0.931513 3.62338 -1.19796 2.54356 0.736528 -29.2282 51.6113 43.8003 
638 3 2.29179 1.48982 3.58443 -6.56306 -1.07251 -0.00762115 -1.25189 17.2586 -3.44314 
937 2 1.66463 0.81066 3.9577 -0.615157 -1.2439 -1.17866 -18.9151 7.87607 -42.7145 
971 3 3.09212 0.889796 3.97189 0.621671 0.388917 -0.978325 20.1731 -35.4443 -24.3472 
943 2 4.18385 1.07193 3.35368 1.28738 0.277736 -0.10645 -17.1884 -63.2695 68.1395 
643 2 5.05404 1.32053 3.50339 0.41113 -0.0508531 0.845387 5.29467 -17.077 24.5643 
645 3 4.95476 1.11383 3.75557 2.45285 3.68821 -6.61174 32.7882 -2.88297 -4.32383 
1263 3 0.475453 2.13961 3.77472 -1.476 1.4461 0.75675 -17.6667 -71.112 -47.6959 
1261 2 0.493589 2.388 3.9839 0.226558 0.657251 -0.50631 1.57064 62.6154 77.972 
696 3 1.33201 2.37668 3.33919 0.326419 0.92521 0.878829 42.8909 -27.7557 25.6662 
637 2 2.26677 1.82091 3.49858 -0.376701 -1.1239 -1.08288 1.78138 -17.901 13.0544 
1271 3 3.18374 1.87014 3.82925 -4.0269 -1.9133 -3.41124 -64.3226 16.8644 -45.0745 
1270 2 3.43763 1.77769 4.00927 0.203177 0.621028 0.569102 67.9944 -24.4121 56.0021 
1272 3 3.72823 1.65745 3.88948 -3.15752 0.31643 5.18024 -21.1086 -6.34393 -36.9716 
674 3 4.68948 2.02595 4.04439 0.040487 1.56354 0.640851 17.0836 -3.15097 -25.0822 
675 3 4.54161 2.02739 3.45739 2.82863 2.93448 -1.54354 16.2564 15.881 17.1364 
673 2 4.69875 2.15693 3.72823 -0.350751 -0.782323 0.834211 -1.81798 -7.52084 13.083 
996 3 2.06624 2.99985 3.73354 -1.34792 1.50135 3.761 -14.3294 -14.8782 7.59762 
969 3 2.93814 2.70511 3.36352 -3.53398 -2.73045 -0.320014 3.21096 7.70946 -19.0474 
699 3 3.83748 2.69728 3.92458 -0.0995685 3.52297 -4.14298 14.8675 -5.8148 11.5396 
1005 3 5.37625 2.75888 3.82618 0.0311371 -4.73492 -3.38916 -17.7605 27.0192 -28.4395 
1004 3 5.44507 2.48246 3.34229 2.10192 2.10568 -2.72798 14.1586 -17.3766 23.767 
1003 2 5.38723 2.78055 3.48872 1.09198 -1.72869 0.659854 -0.910743 4.55822 2.83961 
1023 3 0.566105 4.02704 3.55165 1.67501 -3.22941 -0.156938 38.1855 56.8034 -14.613 
995 3 1.64156 3.27613 3.62963 -2.3572 1.18297 2.74876 23.3518 14.5938 -13.0331 
994 2 1.98172 3.3036 3.62811 -0.505248 0.468769 -0.700206 -20.8753 27.9739 -10.0115 
997 2 2.75276 3.94293 3.28241 0.0618941 -0.606981 -0.479928 -19.9129 -16.2667 -13.956 
1031 3 3.86257 3.77613 3.46907 0.235115 6.31404 -3.14458 -20.6432 -11.8442 -3.55644 
1021 2 0.484227 4.24625 3.28152 0.391959 0.825524 0.35344 30.8515 -44.7683 13.901 
1025 3 1.53317 4.43601 3.43874 -0.405713 4.07189 0.161812 -58.2056 94.3146 -74.227 
1024 2 1.64927 4.16839 3.57547 0.518847 0.827636 0.019633 5.17892 -117.814 35.8714 
1026 3 1.93581 4.28115 3.69548 2.74043 1.85592 4.70918 21.5192 0.80399 59.1242 
1362 3 3.19049 4.71896 3.92019 1.52198 1.01785 1.90703 -31.9726 -23.6992 -29.8312 
1038 3 4.81563 4.27651 3.66445 -3.31475 1.25759 1.31453 7.49516 20.5969 -62.9106 
1336 2 5.66253 4.83745 3.52994 -0.634406 1.45723 -1.31061 9.23332 28.6348 6.16035 
1036 2 5.02758 4.05358 3.51606 -0.193825 -1.0315 0.584165 50.3958 53.887 147.519 
1351 2 0.610729 5.39299 3.97435 0.0261142 0.521 1.76385 0.492082 4.71714 11.8351 
1352 3 0.688512 5.12054 3.79107 -0.87695 0.195286 3.00552 -13.2221 -4.05321 -0.106153 
1058 3 2.32638 5.09844 3.33011 -3.71117 -1.1379 -1.53274 32.4905 29.6001 11.3013 
1363 2 4.84389 5.57322 3.72816 0.355387 -0.875987 0.0131805 -29 -1.45043 74.921 
1035 3 4.09627 4.9689 3.62582 3.76297 2.72462 6.41697 -11.1216 -6.0193 54.7948 
1033 2 4.28335 4.9374 3.35491 -0.567102 0.642946 0.66542 26.5429 -9.71578 -33.0227 
1234 2 1.25319 0.169298 4.70486 0.401451 0.0296139 -0.670041 -81.6499 -4.15653 -59.9429 
1236 3 0.943389 0.24926 4.84277 -3.53932 -4.05571 0.75554 25.7202 -27.221 -14.8034 
938 3 1.82781 0.780006 4.24263 -0.622465 -0.756848 6.00816 0.421462 21.711 23.3067 
1241 3 4.04803 0.692183 4.40905 -4.49468 2.18521 -3.18336 20.736 -15.9029 5.47166 
1242 3 4.39423 0.679364 4.79768 -5.47409 0.83587 1.65027 3.4764 11.4684 23.3812 
1240 2 4.32351 0.511317 4.51752 -0.187742 0.360458 -1.35312 -28.7753 5.71486 -26.8325 
1245 3 5.27653 0.431797 4.40701 -0.00487985 3.37602 0.482114 19.8822 8.2865 3.19657 
1243 2 5.53163 0.607689 4.26451 0.592679 0.630703 1.0301 -45.8471 -41.1231 -32.2773 
1536 3 0.606409 1.24273 4.74071 -3.15624 -0.15152 3.9966 -41.7295 27.4343 -33.1751 
1268 3 2.55894 1.3791 4.63311 1.81519 -2.27773 3.91537 -11.3897 -16.6737 9.94847 
1278 3 5.07402 1.47093 4.77842 -1.80169 -7.68021 2.29619 9.85965 9.92572 21.877 
1262 3 0.43778 2.28819 4.30799 1.59693 -0.5544 -3.86219 13.1699 -41.1272 -47.7065 
1266 3 1.36733 1.74799 4.1479 -3.75988 2.29244 -0.393825 0.364052 -3.21559 -10.3208 
1264 2 1.49661 1.70609 4.45724 1.00998 -0.923957 0.377444 15.5546 -18.8254 -12.5877 
1265 3 1.31657 1.93022 4.62544 0.421752 0.106073 5.62443 -20.5686 25.1816 13.2105 
1299 3 2.24222 2.26678 4.36377 2.78714 -2.86091 1.92514 -36.9101 -5.77251 4.21868 
1297 2 2.53397 2.40074 4.28566 0.0555872 -0.466952 0.0435915 67.7167 34.8872 8.00185 
1269 3 3.03959 1.63718 4.80264 -1.5255 0.812338 -5.62439 -22.1234 -5.98813 1.48592 
1571 3 4.06441 1.69976 4.79755 -2.10601 -4.77952 -0.631307 39.5573 -25.6006 8.2099 
965 3 0.935613 3.13535 4.30287 -0.815025 2.95918 -4.66882 20.6791 23.0105 -11.1169 
964 2 1.03762 3.07818 4.6149 -0.153269 -0.7878 0.645911 49.9206 -49.4211 -12.4293 
966 3 1.33959 2.93422 4.55654 -4.46666 4.59077 0.149319 -0.977394 -3.90413 -6.33184 
1298 3 2.79153 2.55499 4.46459 -0.322369 0.277273 0.232227 -31.8187 -18.7091 -19.7188 
698 3 3.86661 2.61181 4.44224 0.688397 3.27297 1.80952 -16.5308 0.457632 25.2703 
697 2 4.06191 2.61826 4.17254 0.0949956 0.651459 -0.523433 -19.395 26.1254 -33.415 
1274 3 5.07041 2.52861 4.82036 -1.86245 5.94881 -0.673661 -58.08 -12.2352 3.54368 
1029 3 2.30935 3.66709 4.42409 -4.85364 1.48857 -0.467335 -13.5424 3.758 2.26 
1028 3 1.89595 3.81008 4.67594 -0.0463462 -1.20743 5.82562 -69.3748 -42.1003 12.7248 
1027 2 2.20631 3.90115 4.64152 0.674285 0.960227 0.314857 81.828 33.9545 -1.3233 
1304 3 3.22162 3.44355 4.17071 -1.83528 -1.19898 -3.28672 34.5723 -1.22332 10.6137 
1305 3 3.30384 3.85261 4.52676 -2.52748 0.504181 3.23798 11.9389 -99.7839 3.56707 
1303 2 3.2445 3.50655 4.50676 -0.18358 -0.821012 -1.93275 5.75907 37.2586 -15.1988 
1307 3 4.65045 3.43678 4.06081 0.386759 2.25682 0.568659 -10.8977 -42.1643 49.3707 
1306 2 4.62303 3.59605 4.36708 -0.656782 0.420945 -1.10204 -7.03578 -14.4938 -24.0965 
1308 3 4.28988 3.55585 4.42441 3.53701 -10.9056 -5.97131 14.9767 8.20387 -14.6651 
1007 3 5.62497 3.74507 4.22488 4.69389 0.184147 0.26181 14.0778 -40.8014 -46.2842 
1006 2 5.47161 3.97607 4.3964 0.470656 1.95569 -0.453339 -40.4347 63.0672 17.6622 
1008 3 5.49269 3.91676 4.72372 2.44001 -5.01648 2.7377 -16.9478 -17.7696 3.12235 
1321 2 1.04523 4.28746 4.75043 0.408672 0.309548 -1.12791 17.9953 -25.4 -32.2874 
1322 3 1.08176 4.26493 4.40467 -0.41248 -1.12693 4.47513 -34.3916 -10.4338 0.952893 
1323 3 0.869924 4.56983 4.72781 0.516549 0.0356718 -4.95697 -19.3908 42.8378 12.2791 
1361 3 2.74065 4.65626 4.25591 1.36803 -0.370052 2.60784 -65.4033 7.16157 5.38282 
1360 2 3.06421 4.62554 4.21673 1.24784 -0.190799 -0.859835 49.8124 37.1405 -15.795 
1332 3 4.19318 4.55745 4.60728 3.32231 1.0172 3.25687 31.1237 -17.1246 23.2309 
1334 3 5.12362 4.84884 4.38401 -2.75358 0.59546 -0.288646 2.61982 34.8631 73.9726 
1353 3 0.654792 5.45469 4.30638 1.39155 2.66883 -0.635949 -12.6887 -10.7967 -24.3719 
1325 3 1.62841 5.16365 4.09588 3.3577 -6.58638 5.14997 42.7093 7.7912 34.2783 
1326 3 1.7816 4.94732 4.54811 -1.74882 -6.89805 -0.0864544 24.9472 25.7848 -16.9722 
1324 2 1.91869 5.12874 4.2864 -0.264168 0.812809 0.329588 -41.5986 -12.1927 3.25328 
1391 3 3.53639 5.27562 4.63803 2.93503 0.85059 3.18999 -12.5273 71.1361 -4.09305 
1390 2 3.49616 5.46934 4.35049 -0.278911 0.468001 -0.917269 4.83411 -19.3539 29.3696 
1335 3 5.34041 5.2128 4.72134 1.30359 1.42667 -2.63158 -54.1654 -75.3661 6.84293 
1333 2 5.0952 4.93999 4.71897 1.40072 -0.387369 0.739958 40.646 33.1863 -32.4699 
1235 3 1.437 0.21267 4.96961 -1.61059 -0.963019 -0.255186 67.6666 54.6062 58.9452 
1777 2 2.39218 0.148517 5.06439 1.64015 0.109861 -0.543171 -11.1704 -9.97952 -5.07481 
1778 3 2.60701 0.202491 5.31631 -1.58943 -1.59875 5.98865 1.99519 25.7113 -32.6241 
1779 3 2.47387 0.418395 4.88124 -1.1528 -3.92851 3.03912 -1.61364 5.65122 25.2383 
1238 3 3.50863 0.671861 5.39003 0.664812 0.407149 -0.673424 -5.00158 17.6426 -12.573 
1545 3 5.19853 0.712312 5.52323 -3.81912 -0.597019 5.09202 -7.66643 -37.2717 -13.3659 
1534 2 0.804061 1.10366 4.96192 1.74006 -2.12186 0.0682583 37.7662 -3.51544 53.0298 
1535 3 0.865437 1.19093 5.28379 -5.20242 4.72143 1.40217 17.6474 12.4901 -21.5269 
1539 3 1.87485 1.08336 5.35628 1.81947 -0.56892 4.39528 -36.1317 -29.9635 -50.5613 
1537 2 2.07093 1.18591 5.60505 1.1506 0.0862435 -0.112925 16.1752 -0.778489 26.4807 
1239 3 3.18063 1.01095 5.59028 -4.43712 4.77078 -7.61284 -6.58507 -0.039574 -4.50355 
1267 2 2.70855 1.5709 4.86165 -0.188346 0.761742 0.379833 28.0133 16.9882 12.9498 
1237 2 3.51083 0.993795 5.51354 0.733987 -1.11292 1.0834 -5.44345 -22.9189 -7.67026 
1276 2 5.26008 1.613 5.03562 -0.0373987 0.415206 -1.09277 -18.1688 -13.4186 -23.8424 
1295 3 0.72543 2.41802 5.39603 1.18892 -2.20843 0.764594 -25.7031 -79.8924 -8.39423 
1294 2 0.480042 2.19669 5.48314 0.643904 1.37115 0.593816 -0.884206 22.8231 -30.9123 
1296 3 0.227908 2.23134 5.25986 2.75046 2.1652 2.16592 1.45784 -5.25612 24.1032 
1567 2 1.8631 2.30148 5.43612 0.439951 -1.99676 0.0735415 -29.3281 -11.3151 33.3464 
1568 3 2.03087 2.04182 5.30268 4.10424 -3.66022 -2.50352 13.0233 29.1814 21.8995 
1301 3 3.17855 2.40277 5.43112 -5.59806 3.57446 -0.931894 -0.197158 -4.1495 21.1422 
1570 2 3.89473 1.8775 5.01779 -0.194789 -0.585293 0.622799 -6.85964 20.6913 68.121 
1572 3 4.05462 1.82775 5.32649 2.65653 1.50306 -8.32894 -53.4397 12.7559 -35.1099 
1277 3 5.00316 1.6223 5.25563 -0.15514 -5.58626 1.89791 25.1547 35.9993 0.228076 
1598 3 2.43833 3.21021 5.3183 2.45226 -6.49714 -2.66044 -1.2371 -49.1607 -4.11682 
1597 2 2.66796 3.15854 5.56986 0.47763 -0.003704 -0.896013 11.3775 -1.51032 -72.7553 
1600 2 3.89013 3.18412 5.60461 -0.420907 -0.0544701 -0.29809 -3.9262 17.3255 -49.5856 
1602 3 3.8677 3.21293 5.24785 2.77698 -3.82858 4.08451 -4.81768 -26.6024 45.9213 
1273 2 5.24705 2.77792 4.94631 -0.79223 -0.668633 0.306415 15.046 46.6741 17.1282 
1275 3 5.04502 3.05384 4.94342 -1.11164 2.54794 8.05981 7.21425 -17.8086 0.788698 
1562 3 0.566799 3.62577 5.0875 -1.42872 -6.53739 -2.19004 -30.4951 51.5505 16.8303 
1563 3 0.241419 3.2481 5.23579 2.50713 -4.4933 0.709298 -35.7233 0.801364 -24.2684 
1561 2 0.478912 3.44593 5.35532 -0.192638 0.298979 -0.65689 22.5141 12.3828 29.9796 
1595 3 1.439 3.25229 5.49056 -0.0872839 -3.23992 0.631486 -20.5938 -19.6832 16.2539 
1329 3 2.03149 4.03614 5.62847 1.35479 4.59406 4.1774 -38.8152 25.114 67.6996 
1599 3 2.87567 3.38711 5.4432 3.03691 -9.96566 -0.0959426 41.8805 31.2375 -13.573 
1601 3 3.87121 3.5237 5.63426 -2.59856 0.973696 -2.76414 1.60207 3.20511 18.1527 
1907 3 4.80008 3.93825 5.45814 4.88701 -0.32226 0.532273 24.7081 -0.607846 36.6207 
1649 3 0.0464442 4.49328 5.27698 -3.1256 5.06475 -4.35626 -28.0487 -22.4961 14.2535 
1623 3 1.25218 4.69655 5.64257 0.537252 -4.42338 3.44214 88.2575 34.517 -35.484 
1901 3 3.00137 4.4656 5.24155 -4.04669 -2.75212 1.89979 4.1282 -37.9925 -54.9967 
1900 2 3.11498 4.50107 5.5464 -0.217216 0.186256 -0.694446 66.4708 -17.9234 56.5176 
1331 3 4.00965 4.38424 5.05628 -4.441 -1.47203 1.16244 8.73971 22.5843 -6.28233 